6
Energy:    -41.66596299
    O     -0.26159607     -0.08743491      1.63290676
    H     -1.16985188     -0.40865760      1.62427755
    H     -0.01265927     -0.00228250      0.70610223
    O      0.27665100      0.09473328     -0.99750272
    H      0.32831652      0.92402596     -1.48514135
    H      0.83913970     -0.52038423     -1.48064247
