6
Energy:   -732.79754763
    O     -0.20241517      0.04025968      1.32453946
    H     -0.38129416      0.07586301      2.29525363
    O      0.35291409     -0.07041917     -0.94361320
    H     -0.16680325     -0.80227569     -1.35778184
    H      0.15439002      0.80525622     -1.35723713
    H      0.24320847     -0.04868406      0.03883907
