3
Energy:     -0.00554412
    O     -0.00108980     -0.00979701      0.38938591
    H      0.71915723      0.27011776     -0.18600878
    H     -0.71806743     -0.26032075     -0.20337714
