6
Energy:   -732.79754737
    O     -0.21182860     -0.00130645      1.32367835
    H     -0.39820683     -0.00181283      2.29363412
    O      0.36372782     -0.00222271     -0.94213070
    H     -0.01276563     -0.81496738     -1.36040636
    H      0.01123017      0.82415282     -1.35462655
    H      0.24784307     -0.00384346      0.03985113
