6
Energy:   -732.79724439
    O      0.04204883     -0.01817119      1.33973841
    H      0.05649071     -0.00577277      2.32725499
    O      0.08248402     -0.16354008     -0.99315484
    H     -0.84775796     -0.24351342     -1.31797767
    H      0.53129737      0.64224758     -1.34893114
    H      0.13543702     -0.21125013     -0.00692975
