6
Energy:   -732.63129018
    O     -0.21373253     -0.05128680      1.32250957
    H     -0.34910021     -0.11031065      2.29910727
    O      0.00654612      0.18316834     -0.99297738
    H     -0.18796131     -0.68860305     -1.41657772
    H     -0.18023301      0.17342883     -0.02224434
    H      0.92448094      0.49360333     -1.18981740
