6
Energy:   -732.62001247
    O     -0.10355281      0.17923799      1.32462272
    H     -0.19501400      0.33751156      2.29525942
    O      0.18024328     -0.31204618     -0.94321275
    H      0.12398204     -0.21487323      0.03895212
    H     -0.71219786     -0.40519417     -1.35815395
    H      0.70653935      0.41536402     -1.35746756
