6
Energy:    -41.66596711
    O      0.15236647      0.27970094     -0.98948133
    H     -0.35906318      0.94244778     -1.46633922
    H      0.98683146      0.21043078     -1.46598624
    O     -0.15250945     -0.27970251      1.62510592
    H     -0.01505267     -0.02737455      0.70552812
    H     -0.61257263     -1.12550244      1.59117275
