6
Energy:    -41.65691598
    O      0.65022431      0.32798825     -1.48727211
    H      0.18239178      0.17849393     -0.65843480
    H      1.54185445     -0.00609267     -1.34039553
    O     -0.51213967     -0.15770418      0.89074246
    H     -1.14933897     -0.86257731      1.04985884
    H     -0.71299190      0.51989197      1.54550114
