6
Energy:    -20.57165246
    O     -1.09579687     -0.14421689      1.41375979
    H     -1.49657869      0.18083968      0.60018788
    H     -0.27417619     -0.56738976      1.14163614
    O      0.58058868      0.24843815     -0.97419136
    H      0.93792799     -0.26337130     -1.70804884
    H      1.34803508      0.54570012     -0.47334362
