3
Energy:      0.00000000
    O     -0.06828552      0.38295598     -0.02000914
    H     -0.11018130     -0.17791075      0.76220590
    H      0.17846682     -0.20504523     -0.74219676
