      -----------------------------------------------------------      
     |                   =====================                   |     
     |                           x T B                           |     
     |                   =====================                   |     
     |                         S. Grimme                         |     
     |          Mulliken Center for Theoretical Chemistry        |     
     |                    University of Bonn                     |     
     |                 Version 6.0.1 (SAW181210)                 |     
      -----------------------------------------------------------      

   This program is distributed in the hope that it will be useful,
   but WITHOUT ANY WARRANTY; without even the implied warranty of
   MERCHANTABILITY or FITNESS FOR A PARTICULAR PURPOSE.
   
   FOR NON-COMMERCIAL, ACADEMIA USE ONLY.
   
   Cite this work as:
   S. Grimme, C. Bannwarth, P. Shushkov, J. Comput. Theory Chem., 2017,
   13, 1989-2009.
   C. Bannwarth, S. Ehlert and S. Grimme., ChemRxiv, 2018, preprint.
   http://doi.org/10.26434/chemrxiv.7246238.v1
   
   for sTDA-xTB:
   S. Grimme and C. Bannwarth, J. Chem. Phys., 2016, 145, 054103.
   
   in the mass-spec context:
   V. Asgeirsson, C. Bauer and S. Grimme, Chem. Sci., 2017, 8, 4879.
   
   if GBSA is used:
   P. Shushkov, F. März and S. Grimme, unpublished.
   
   for ANC optimizer:
   S. Grimme, unpublished.
   Rational Function algorithm used in ANCopt:
   F. Eckert, P. Pulay, H.-J. Werner, J. Comput. Chem., 1997, 18, 1473.
   
   with help from (in alphabetical order)
   C. Bannwarth, F. Bohle, G. Brandenburg, E. Caldeweyher, M. Checinski,
   S. Dohm, S. Ehlert, S. Ehrlich, F. März, H. Neugebauer, J. Pisarek,
   P. Pracht, P. Shushkov, and S. Spicher.
   
 * started run on 2019/09/09 at 16:38:48.276     
========================================================================
 # omp threads = 1
========================================================================
number of atoms            : 6
number of electrons        : 16
charge                     : 0
spin                       : .0
first test random number   : .2022

########################################################################
# WARNING! Please study the warnings concerning your input carefully
#  - XTBPATH is not set, using XTBHOME instead
########################################################################

           ------------------------------------------------- 
          |                 G F N 2 - x T B                 |
          | Geometry, Frequencies, Noncovalent interactions |
          |            JCTC 2018 parametrisation            |
           ------------------------------------------------- 
      method parameters     
 k(s)        :  1.8500
 k(p)        :  2.2300
 k(d)        :  2.2300
 k(f)        :  2.0000
 kEN (H0ij)  : -2.0000
 D4 a1       :  0.5200
 D4 a2       :  5.0000
 D4 s6       :  1.0000
 D4 s8       :  2.7000
 D4 s9       :  5.0000
 alphaj      :  2.0000


            Z     q(EN)     CN     RAES       Cart. coordinates
     1  O   6.0   -0.33    1.33    1.80     0.51829    -2.47317    -0.17872
     2  H   1.0    0.17    0.94    1.42     0.86924    -4.30447    -0.26203
     3  O   6.0   -0.23    2.88    2.51    -0.17170     1.89030    -0.19867
     4  H   1.0    0.11    0.96    1.43    -2.00907     2.19800    -0.33727
     5  H   1.0    0.11    0.96    1.43     0.54227     2.60861     1.37114
     6  H   1.0    0.17    1.29    1.49     0.25096     0.08073    -0.39445

  Z AO/shell   Hii/eV     exponent
  1     Wed Apr 25 08:07:45 CEST 2018   EN: 2.200 GM2: 0.406  GM3: 0.0800  RAES: 1.40
     1s    -10.707211    1.230000
  8     Wed Apr 25 08:07:45 CEST 2018   EN: 3.440 GM2: 0.452  GM3:-0.0517  RAES: 1.80
     2s    -20.229985    2.439742
     2p    -15.503117    2.137023
 no old-style atom pair restraining (fixing) potential

molecular fragmentation (1/2 indicates fragments):
112222
# atoms in fragment 1/2:     2     4
 fragment masses (1/2) :       17.01       19.02
CMA distance (Bohr)    :   4.493
constraining FC (au)   :  0.0500
           ------------------------------------------------- 
          |        Self-Consistent Charge Iterations        |
           ------------------------------------------------- 

 Ncao       : 12
 Nao        : 12
 Nshell     : 8
 Nel        : 16
 T(el)      :   300.0
 intcut     :    25.0
 scfconv/Eh :  0.100E-05
   qconv/e  :  0.100E-03
 intneglect :  0.100E-07
 broydamp   :      0.250
 iter      E             dE          RMSdq      gap      omega  full diag
   1    -10.0460411 -0.100460E+02  0.654E+00   12.30       0.0  T
   2    -10.0640672 -0.180261E-01  0.463E+00   10.09       1.0  T
   3    -10.0817508 -0.176837E-01  0.116E+00    4.30       1.0  T
   4    -10.0819327 -0.181864E-03  0.771E-01    5.29       1.0  T
   5    -10.0825830 -0.650302E-03  0.108E-01    4.35       1.0  T
   6    -10.0825905 -0.748256E-05  0.416E-02    4.47       1.0  T
   7    -10.0825918 -0.132621E-05  0.139E-02    4.48       2.9  T
   8    -10.0825919 -0.104908E-06  0.842E-03    4.48       4.9  T
   9    -10.0825920 -0.771164E-07  0.156E-03    4.47      26.2  T
  10    -10.0825920 -0.806205E-09  0.816E-04    4.47      50.0  T
  11    -10.0825920 -0.576854E-09  0.545E-05    4.47     749.0  T
speedup  1.05
cpu  time for SCC    0.00 s
wall time for SCC    0.00 s

   *** convergence criteria satisfied after 11 iterations ***

          eigenvalues
 #    :           1          2          3          4          5          6          7          8
 occ. :        2.000      2.000      2.000      2.000      2.000      2.000      2.000      2.000
 eps  :       -21.572    -18.500    -17.903    -16.249    -13.664    -10.372     -6.783     -6.755
 #    :           9         10         11         12
 occ. :        0.000      0.000      0.000      0.000
 eps  :        -2.285      3.501      4.540     13.748


   #   Z            q   n(s)   n(p)   n(d)      C6AA      α(0)
   1   8 O     -0.990  1.800  5.190  0.000    37.846     8.252
   2   1 H      0.166  0.834  0.000  0.000     1.315     1.801
   3   8 O     -0.370  1.651  4.719  0.000    20.227     6.074
   4   1 H      0.374  0.626  0.000  0.000     0.536     1.150
   5   1 H      0.374  0.626  0.000  0.000     0.535     1.150
   6   1 H      0.446  0.554  0.000  0.000     0.400     0.988

 Mol. C6AA /au·bohr⁶  :        191.670490
 Mol. C8AA /au·bohr⁸  :       3473.893375
 Mol. α(0) /au        :         19.414814

 
 Wiberg/Mayer (AO) data. WBOs > 0.1 written file <wbo>
 largest (>0.05) Wiberg bond orders for each atom
           total WBO             WBO to atom ...
     1  O   1.206    H    2 0.924    H    6 0.216    O    3 0.053
     2  H   0.973    O    1 0.924
     3  O   2.336    H    5 0.851    H    4 0.851    H    6 0.560    O    1 0.053
     4  H   0.860    O    3 0.851
     5  H   0.860    O    3 0.851
     6  H   0.801    O    3 0.560    O    1 0.216
 MOs/occ written to file <molden.input>
 
molecular dipole:
                 x           y           z       tot (Debye)
 q only:       -0.742       2.869       0.418
   full:       -0.800       2.653       0.557       7.185
molecular quadrupole (traceless):
                xx          xy          yy          xz          yz          zz
 q only:        1.082      -0.517      -1.091       0.793       1.402       0.008
  q+dip:        0.698      -1.312       0.165       0.995       2.197      -0.862
   full:        0.578      -1.441       0.468       1.021       2.287      -1.046

SCC energy    :     -10.0825920
rep           :       0.0527234
ES            :       0.1638266
AES           :      -0.0062180
AXC           :      -0.0004066
disp          :      -0.0008620
XB            :       0.0000000
fix           :       0.0000000
total E       :     -10.0298686
atomizationE  :       0.9243520      580.04
(atE without considering molecular charge,
 total energy contains solvation terms)
H-L gap (eV)  :          4.4703

------------------------------------------------------------------------
 * finished run on 2019/09/09 at 16:38:48.317     
------------------------------------------------------------------------
 total:
 * wall-time:     0 d,  0 h,  0 min,  0.039 sec
 *  cpu-time:     0 d,  0 h,  0 min,  0.034 sec
 * ratio c/w:     0.881 speedup
 SCF:
 * wall-time:     0 d,  0 h,  0 min,  0.018 sec
 *  cpu-time:     0 d,  0 h,  0 min,  0.015 sec
 * ratio c/w:     0.829 speedup

