      -----------------------------------------------------------      
     |                   =====================                   |     
     |                           x T B                           |     
     |                   =====================                   |     
     |                         S. Grimme                         |     
     |          Mulliken Center for Theoretical Chemistry        |     
     |                    University of Bonn                     |     
     |                 Version 6.0.1 (SAW181210)                 |     
      -----------------------------------------------------------      

   This program is distributed in the hope that it will be useful,
   but WITHOUT ANY WARRANTY; without even the implied warranty of
   MERCHANTABILITY or FITNESS FOR A PARTICULAR PURPOSE.
   
   FOR NON-COMMERCIAL, ACADEMIA USE ONLY.
   
   Cite this work as:
   S. Grimme, C. Bannwarth, P. Shushkov, J. Comput. Theory Chem., 2017,
   13, 1989-2009.
   C. Bannwarth, S. Ehlert and S. Grimme., ChemRxiv, 2018, preprint.
   http://doi.org/10.26434/chemrxiv.7246238.v1
   
   for sTDA-xTB:
   S. Grimme and C. Bannwarth, J. Chem. Phys., 2016, 145, 054103.
   
   in the mass-spec context:
   V. Asgeirsson, C. Bauer and S. Grimme, Chem. Sci., 2017, 8, 4879.
   
   if GBSA is used:
   P. Shushkov, F. März and S. Grimme, unpublished.
   
   for ANC optimizer:
   S. Grimme, unpublished.
   Rational Function algorithm used in ANCopt:
   F. Eckert, P. Pulay, H.-J. Werner, J. Comput. Chem., 1997, 18, 1473.
   
   with help from (in alphabetical order)
   C. Bannwarth, F. Bohle, G. Brandenburg, E. Caldeweyher, M. Checinski,
   S. Dohm, S. Ehlert, S. Ehrlich, F. März, H. Neugebauer, J. Pisarek,
   P. Pracht, P. Shushkov, and S. Spicher.
   
 * started run on 2019/09/09 at 16:38:48.716     
========================================================================
 # omp threads = 1
========================================================================
number of atoms            : 6
number of electrons        : 16
charge                     : 0
spin                       : .0
first test random number   : .5761

########################################################################
# WARNING! Please study the warnings concerning your input carefully
#  - XTBPATH is not set, using XTBHOME instead
########################################################################

           ------------------------------------------------- 
          |                 G F N 2 - x T B                 |
          | Geometry, Frequencies, Noncovalent interactions |
          |            JCTC 2018 parametrisation            |
           ------------------------------------------------- 
      method parameters     
 k(s)        :  1.8500
 k(p)        :  2.2300
 k(d)        :  2.2300
 k(f)        :  2.0000
 kEN (H0ij)  : -2.0000
 D4 a1       :  0.5200
 D4 a2       :  5.0000
 D4 s6       :  1.0000
 D4 s8       :  2.7000
 D4 s9       :  5.0000
 alphaj      :  2.0000


            Z     q(EN)     CN     RAES       Cart. coordinates
     1  O   6.0   -0.33    1.33    1.80    -0.19569     0.33871     2.50317
     2  H   1.0    0.17    0.94    1.42    -0.36852     0.63780     4.33741
     3  O   6.0   -0.23    2.88    2.51     0.34061    -0.58968    -1.78241
     4  H   1.0    0.17    1.29    1.49     0.23429    -0.40605     0.07361
     5  H   1.0    0.11    0.96    1.43    -1.34586    -0.76571    -2.56654
     6  H   1.0    0.11    0.96    1.42     1.33517     0.78492    -2.56524

  Z AO/shell   Hii/eV     exponent
  1     Wed Apr 25 08:07:45 CEST 2018   EN: 2.200 GM2: 0.406  GM3: 0.0800  RAES: 1.40
     1s    -10.707211    1.230000
  8     Wed Apr 25 08:07:45 CEST 2018   EN: 3.440 GM2: 0.452  GM3:-0.0517  RAES: 1.80
     2s    -20.229985    2.439742
     2p    -15.503117    2.137023
 no old-style atom pair restraining (fixing) potential

molecular fragmentation (1/2 indicates fragments):
112222
# atoms in fragment 1/2:     2     4
 fragment masses (1/2) :       17.01       19.02
CMA distance (Bohr)    :   4.494
constraining FC (au)   :  0.0500
           ------------------------------------------------- 
          |        Self-Consistent Charge Iterations        |
           ------------------------------------------------- 

 Ncao       : 12
 Nao        : 12
 Nshell     : 8
 Nel        : 16
 T(el)      :   300.0
 intcut     :    25.0
 scfconv/Eh :  0.100E-05
   qconv/e  :  0.100E-03
 intneglect :  0.100E-07
 broydamp   :      0.250
 iter      E             dE          RMSdq      gap      omega  full diag
   1    -10.0459796 -0.100460E+02  0.653E+00   12.30       0.0  T
   2    -10.0640079 -0.180282E-01  0.463E+00   10.09       1.0  T
   3    -10.0817022 -0.176943E-01  0.118E+00    4.30       1.0  T
   4    -10.0818647 -0.162545E-03  0.775E-01    5.30       1.0  T
   5    -10.0825255 -0.660793E-03  0.107E-01    4.35       1.0  T
   6    -10.0825332 -0.765145E-05  0.391E-02    4.47       1.0  T
   7    -10.0825342 -0.107513E-05  0.141E-02    4.47       2.9  T
   8    -10.0825344 -0.112183E-06  0.873E-03    4.47       4.7  T
   9    -10.0825344 -0.821999E-07  0.153E-03    4.47      26.8  T
  10    -10.0825344 -0.656900E-09  0.846E-04    4.47      48.2  T
  11    -10.0825344 -0.629752E-09  0.537E-05    4.47     759.6  T
speedup  0.83
cpu  time for SCC    0.00 s
wall time for SCC    0.00 s

   *** convergence criteria satisfied after 11 iterations ***

          eigenvalues
 #    :           1          2          3          4          5          6          7          8
 occ. :        2.000      2.000      2.000      2.000      2.000      2.000      2.000      2.000
 eps  :       -21.573    -18.500    -17.905    -16.250    -13.662    -10.371     -6.782     -6.754
 #    :           9         10         11         12
 occ. :        0.000      0.000      0.000      0.000
 eps  :        -2.288      3.489      4.544     13.755


   #   Z            q   n(s)   n(p)   n(d)      C6AA      α(0)
   1   8 O     -0.990  1.800  5.190  0.000    37.849     8.252
   2   1 H      0.166  0.834  0.000  0.000     1.315     1.802
   3   8 O     -0.370  1.651  4.719  0.000    20.225     6.074
   4   1 H      0.446  0.554  0.000  0.000     0.400     0.988
   5   1 H      0.374  0.626  0.000  0.000     0.536     1.150
   6   1 H      0.374  0.626  0.000  0.000     0.536     1.150

 Mol. C6AA /au·bohr⁶  :        191.674891
 Mol. C8AA /au·bohr⁸  :       3473.957443
 Mol. α(0) /au        :         19.415061

 
 Wiberg/Mayer (AO) data. WBOs > 0.1 written file <wbo>
 largest (>0.05) Wiberg bond orders for each atom
           total WBO             WBO to atom ...
     1  O   1.206    H    2 0.924    H    4 0.216    O    3 0.053
     2  H   0.973    O    1 0.924
     3  O   2.336    H    5 0.851    H    6 0.851    H    4 0.560    O    1 0.053
     4  H   0.801    O    3 0.560    O    1 0.216
     5  H   0.860    O    3 0.851
     6  H   0.860    O    3 0.851
 MOs/occ written to file <molden.input>
 
molecular dipole:
                 x           y           z       tot (Debye)
 q only:        0.107      -0.185      -2.987
   full:        0.002      -0.003      -2.828       7.189
molecular quadrupole (traceless):
                xx          xy          yy          xz          yz          zz
 q only:        0.804       1.254      -0.639       0.695      -1.203      -0.165
  q+dip:        0.180       1.679      -1.752       0.802      -1.386       1.572
   full:        0.030       1.723      -1.952       0.784      -1.356       1.922

SCC energy    :     -10.0825344
rep           :       0.0527228
ES            :       0.1638742
AES           :      -0.0062231
AXC           :      -0.0004064
disp          :      -0.0008620
XB            :       0.0000000
fix           :       0.0000000
total E       :     -10.0298117
atomizationE  :       0.9242950      580.00
(atE without considering molecular charge,
 total energy contains solvation terms)
H-L gap (eV)  :          4.4666

------------------------------------------------------------------------
 * finished run on 2019/09/09 at 16:38:48.757     
------------------------------------------------------------------------
 total:
 * wall-time:     0 d,  0 h,  0 min,  0.039 sec
 *  cpu-time:     0 d,  0 h,  0 min,  0.034 sec
 * ratio c/w:     0.878 speedup
 SCF:
 * wall-time:     0 d,  0 h,  0 min,  0.018 sec
 *  cpu-time:     0 d,  0 h,  0 min,  0.015 sec
 * ratio c/w:     0.852 speedup

