16
Energy:   -525.53163487
    C      9.94119074      3.85455980      3.15925102
    S      8.77783125      5.19929017      2.99071097
    O      8.87382222      5.59755092      1.59193042
    O      7.48955505      4.62005684      3.35053002
    O      9.24826600      6.21422404      3.92500968
    H      9.92409509      3.50543663      4.18395120
    H      9.65057629      3.05623786      2.48809669
    H     10.92970104      4.21514010      2.90429923
    N      7.16870126      7.99919682      2.02672772
    H      6.94790054      8.60338284      1.22301229
    H      7.77366262      7.22543985      1.71838685
    H      7.65650403      8.55028970      2.74651749
    H      6.29673785      7.61767491      2.41899427
    O      6.51420613      6.93944900      4.78305080
    H      6.50469985      6.03932889      4.43971347
    H      7.38816403      7.05463019      5.17178975
