16
Energy:   -523.87937029
    C      8.47681943      6.31141543      5.54337743
    S      7.45884894      5.15787457      4.63607903
    O      7.60955133      5.55065913      3.24057840
    O      8.02139620      3.84866658      4.94292032
    O      6.11438531      5.35857835      5.16186347
    H      8.41209875      6.07801276      6.59861396
    H      9.49994645      6.21636482      5.20220403
    H      8.11407710      7.31492786      5.36020545
    N      5.01133876      3.93491998      2.95219057
    H      5.14332161      3.21885410      3.67991469
    H      4.18802176      4.50899439      3.18096970
    H      5.84627116      4.53535427      2.90616079
    H      4.86774050      3.47647715      2.04171712
    O      5.28449881      2.57036936      5.61277824
    H      5.06335793      3.17935453      6.32581462
    H      6.24589579      2.58695218      5.55254555
