16
Energy:   -522.33739856
    C      6.00826710      5.44934838      4.66978995
    S      6.07055335      3.73993735      5.18374051
    O      4.67586969      3.35847941      5.36748009
    O      6.72992616      3.04755920      4.08352392
    O      6.84444071      3.75331755      6.41874376
    H      7.01949319      5.80341408      4.51406905
    H      5.44354814      5.51581361      3.74843351
    H      5.52527290      6.02912221      5.44615976
    N      5.74187244      0.42750350      5.11757304
    H      5.90314505     -0.21872210      4.33262984
    H      6.12006327      0.01754104      5.98282137
    H      6.21323968      1.32272121      4.92744050
    H      4.73104174      0.58847385      5.22740043
    O      5.98465830      1.43630596      8.07906623
    H      6.32595884      2.24765364      7.68738272
    H      5.95517327      1.60396501      9.02733211
