16
Energy:   -513.46192114
    C      7.76309664      6.18545616      6.84202115
    S      6.03278643      6.57168708      6.62531149
    O      5.57312739      5.64443397      5.59899372
    O      5.43650876      6.34213682      7.93542452
    O      6.01531633      7.96784184      6.20726795
    H      8.17490499      6.84290932      7.59724225
    H      7.85298848      5.15334633      7.15649147
    H      8.27392651      6.33409970      5.89908471
    N      3.35685802      8.44938627      7.13351196
    H      3.67036033      8.76300514      6.20447390
    H      2.45121883      7.96788773      7.04559708
    H      4.05244108      7.80232902      7.53003852
    H      3.25341184      9.26432321      7.75393833
    O      3.95257865      9.11423687      4.45623226
    H      4.66323187      8.82247782      5.03764068
    H      4.16925046      8.75498851      3.58894854
