16
Energy:   -507.05248196
    C      2.31770773      7.09817226      8.96448478
    S      4.03243091      6.77438132      8.58370314
    O      4.27750562      7.49607734      7.34132390
    O      4.76983238      7.30102199      9.72542344
    O      4.11369523      5.32546121      8.44827670
    H      2.06257667      6.58724260      9.88429386
    H      2.18225646      8.16604125      9.08081009
    H      1.70487361      6.73069603      8.15111725
    N      6.13991755      5.27025373      6.49559088
    H      5.92020786      6.07888184      5.89759386
    H      6.42294551      4.47476878      5.90665026
    H      6.90907711      5.51491994      7.13456210
    H      5.30743973      5.01244438      7.04355732
    O      5.57622157      8.27816175      5.04373814
    H      5.07050963      8.18762883      5.85875123
    H      6.38284608      8.74145522      5.29454317
