16
Energy:   -500.41422857
    C      4.33594545      3.33917281      9.49084005
    S      3.00949215      4.53524641      9.48448096
    O      2.31803770      4.32664764     10.75049447
    O      3.67767343      5.82684677      9.38478731
    O      2.21011621      4.19436883      8.31438938
    H      4.89745666      3.43671990      8.57030790
    H      4.97686098      3.53416996     10.34138470
    H      3.90968176      2.34668372      9.56456811
    N      1.40683417      7.60379049     10.17489778
    H      2.24469310      8.14270598      9.91544703
    H      0.68131268      7.72997124      9.45555837
    H      1.64924882      6.60585716     10.24642689
    H      1.05208206      7.93662755     11.08215884
    O      1.25170120      7.44318908      7.49316866
    H      0.99449696      7.55717421      6.57173474
    H      1.90981885      6.73959171      7.48880948
