16
Energy:   -496.38402907
    C      5.44617554      9.51416205      3.42680477
    S      6.09217942      8.35472038      4.62199715
    O      7.52484069      8.31128312      4.35740724
    O      5.75010275      8.93026860      5.91674204
    O      5.40240433      7.10362387      4.33341169
    H      4.37556512      9.59694461      3.56511628
    H      5.91822155     10.47579333      3.58384188
    H      5.66675077      9.14819326      2.43202610
    N      4.31230757      6.57060090      6.72181708
    H      4.54289477      7.00204744      5.81603806
    H      4.22290611      5.55186055      6.60380143
    H      5.06082187      6.77323153      7.39888381
    H      3.42260751      6.95526407      7.06854500
    O      4.55376429      3.61169373      6.80244286
    H      4.55208956      3.19139219      7.66935169
    H      5.13852737      3.07237493      6.25895920
