16
Energy:   -533.44193202
    C      3.20718092      6.80779577      3.69433494
    S      3.89604909      5.17393979      3.47965822
    O      4.95668083      5.08654229      4.47556731
    O      2.78112480      4.26800412      3.72635835
    O      4.37748965      5.15367190      2.10411545
    H      2.40584048      6.94475770      2.97929323
    H      2.82559720      6.89516988      4.70378155
    H      3.98705365      7.53956307      3.52555601
    N      3.80944104      2.37525448      1.87121088
    H      3.12844171      2.36072112      2.64307931
    H      4.68743630      1.93527007      2.17990208
    H      3.42901803      1.85554876      1.06813149
    H      3.99286815      3.34947797      1.59373062
    O      6.35611991      2.03296224      2.95290155
    H      7.27119642      2.26124798      2.75615878
    H      6.20666765      2.33475850      3.85554774
