16
Energy:   -671.38438935
    S      6.64210184      4.80301892      4.09166893
    O      5.62535928      5.13492490      5.26355290
    O      7.88676572      5.41886191      4.38978246
    H      4.86736775      5.59367667      4.92014515
    O      5.96368157      5.09413124      2.86851574
    C      6.80626276      3.05920379      4.29250045
    H      7.17878441      2.86194693      5.28719464
    H      5.84423499      2.59486708      4.13401169
    H      7.51834208      2.72303066      3.55124468
    N      2.56329785      4.10503747      2.02183702
    H      2.67261811      3.25142078      1.45691241
    H      2.93282150      4.91168024      1.49979113
    H      1.56563499      4.25612860      2.22577939
    H      3.08211680      4.00092027      2.90486517
    O      3.51744353      3.93788152      4.29474185
    H      3.80987018      3.55940961      5.15891599
