16
Energy:   -664.09820242
    S      3.09679483      6.89994142      4.59517759
    O      3.34539444      6.32541994      6.05303984
    O      2.02221005      7.82674122      4.65544490
    H      3.24125443      5.38091933      6.05562167
    O      3.03465503      5.77382424      3.71819246
    C      4.59947789      7.78530239      4.33778127
    H      4.69373873      8.53345109      5.11140108
    H      5.42557242      7.09013081      4.36078085
    H      4.52463825      8.25613827      3.36708974
    N      6.62310192      4.41013463      2.00839262
    H      6.12356181      3.69375336      2.55337863
    H      5.98624660      4.81440089      1.30786689
    H      6.95446566      5.15256306      2.63985941
    H      7.42813359      3.97982122      1.53246555
    O      7.53518277      6.04115498      3.56903084
    H      8.21934636      6.46829182      4.13914100
