16
Energy:   -659.30879474
    S      3.72427401      5.26741842      3.86391778
    O      2.25371895      5.45060173      3.29721618
    O      4.34888511      6.54215694      3.91108919
    H      2.14059201      4.93651822      2.50610704
    O      4.31565540      4.19716435      3.12504807
    C      3.37173010      4.74403963      5.51011362
    H      2.78918802      5.51251534      5.99713415
    H      2.83493870      3.80767452      5.47405734
    H      4.32219908      4.61931177      6.01069441
    N      7.55665638      2.01890581      6.22245465
    H      8.02802267      2.93067513      6.14344378
    H      7.70657621      1.47912393      5.35879280
    H      7.94434797      1.50040055      7.02282939
    H      6.54767866      2.16542360      6.36475260
    O      5.18533032      2.43246478      6.63041215
    H      4.30466705      2.13299259      6.96252646
