16
Energy:   -689.88132048
    S      6.04136021      6.32134485      4.60131991
    O      7.24470280      6.92526074      3.76198015
    O      4.83647718      6.54618877      3.88366781
    H      7.69924387      7.58734844      4.26988322
    O      6.19134150      6.80690824      5.93654947
    C      6.43267845      4.60362214      4.53444675
    H      6.46268782      4.29863765      3.49850124
    H      7.38350924      4.44041989      5.01974101
    H      5.64340858      4.08079985      5.05716979
    N      6.42058144      5.28176498      8.46573378
    H      5.88888170      4.50759046      8.04418734
    H      7.40759401      5.00642561      8.56445869
    H      6.35486576      6.11238568      7.86116543
    H      6.03098427      5.50065816      9.39312368
    O      5.57801351      3.18705539      7.46596955
    H      5.25476878      2.28064792      7.24350688
