6
Energy:   -732.64928492
    O     -0.19629793     -0.06330037      1.32469379
    H     -0.36976838     -0.11920299      2.29543278
    O      0.34245811      0.11040758     -0.94346766
    H     -0.25705277      0.77813757     -1.35817130
    H      0.23608373      0.07624574      0.03878557
    H      0.24457723     -0.78228752     -1.35727317
