6
Energy:   -732.62001248
    O      0.15294158     -0.13836330      1.32474123
    H      0.28809022     -0.26062195      2.29548267
    O     -0.26675182      0.24148349     -0.94341928
    H     -0.18382166      0.16662128      0.03880982
    H      0.55449084      0.60317426     -1.35820143
    H     -0.54494916     -0.61229378     -1.35741301
