 3
 Electronic Energy = -76.0304160284 UPDATED
O	0.000000 -0.000000 0.115599
H	0.000000 -0.766042 -0.468667
H	0.000000 0.766042 -0.468667
all32_cgenff q  epsilon (kJ/mol) sigma (AA)
-0.98397  0.64852  3.1536   # OT
0.49199   0.19246  0.4000   # HGP1
0.49199   0.19246  0.4000   # HGP1
