 12
 Electronic_Energy: -189.295252636
N	-1.853992 -0.180947 -0.113138
C	-0.569211 0.496026 0.089308
C	0.569211 -0.496026 -0.089308
N	1.853992 0.180946 0.113139
H	-2.616369 0.487197 -0.120792
H	-2.033921 -0.829460 0.646529
H	-0.458670 0.976393 1.067571
H	-0.484842 1.276246 -0.670992
H	0.458670 -0.976393 -1.067571
H	0.484842 -1.276246 0.670992
H	2.033920 0.829461 -0.646527
H	2.616369 -0.487197 0.120790
all32_cgenff q  epsilon (kJ/mol) sigma (AA)
-0.615024 0.25104 3.54578
-0.146113 0.234304 3.58141
-0.146112 0.234304 3.58141
-0.615024 0.25104 3.54578
0.285014 0.04184 1.55907
0.268790 0.04184 1.55907
0.110861 0.14644 2.38761
0.096471 0.14644 2.38761
0.110861 0.14644 2.38761
0.096471 0.14644 2.38761
0.268790 0.04184 1.55907
0.285014 0.04184 1.55907
