 13
 Electronic_Energy: -189.663338569
C	0.466895 0.532033 -0.060340
C	-0.636510 -0.516881 0.028533
N	-1.894548 0.204426 -0.037614
N	1.837641 -0.115946 0.020258
H	2.588122 0.577757 -0.032583
H	1.979075 -0.779526 -0.746131
H	0.420357 1.067265 -1.004808
H	0.411548 1.241960 0.761732
H	-0.507325 -1.119427 0.936466
H	-0.563919 -1.191588 -0.826602
H	-2.264768 0.429310 0.877654
H	-2.602762 -0.304664 -0.550014
H	1.955711 -0.631362 0.896622
all32_cgenff q  epsilon (kJ/mol) sigma (AA)
-0.097227 0.23012 3.87541
-0.163876 0.234304 3.58141
-0.618681 0.25104 3.54578
-0.582422 0.8368 3.29633
0.403656 0.192464 0.400014
0.401291 0.192464 0.400014
0.192771 0.14644 2.38761
0.184255 0.14644 2.38761
0.108229 0.14644 2.38761
0.141215 0.14644 2.38761
0.309046 0.04184 1.55907
0.319662 0.04184 1.55907
0.402080 0.192464 0.400014
