 12
 Electronic_Energy: -189.296627673
C	-0.721570 0.590612 0.288547
C	0.678399 0.606280 -0.301778
N	1.403615 -0.593592 0.136272
N	-1.449179 -0.562035 -0.237299
H	-2.350990 -0.665234 0.214086
H	-0.905726 -1.399765 -0.053918
H	-1.246280 1.501629 -0.005994
H	-0.636169 0.601367 1.385709
H	1.178818 1.543567 -0.030355
H	0.594063 0.567752 -1.388335
H	1.715793 -0.490687 1.096668
H	2.228464 -0.750597 -0.431287
all32_cgenff q  epsilon (kJ/mol) sigma (AA)
-0.087505 0.234304 3.58141
-0.173350 0.234304 3.58141
-0.643143 0.25104 3.54578
-0.623876 0.25104 3.54578
0.284689 0.04184 1.55907
0.314768 0.04184 1.55907
0.097991 0.14644 2.38761
0.056938 0.14644 2.38761
0.078389 0.14644 2.38761
0.129324 0.14644 2.38761
0.273636 0.04184 1.55907
0.292140 0.04184 1.55907
