 13
 Electronic_Energy: -189.675990655
C	-0.761431 0.660714 0.259875
N	-1.298767 -0.646737 -0.135114
C	0.679698 0.729810 -0.250410
N	1.312896 -0.585540 0.111686
H	-1.722329 -0.618979 -1.058264
H	-2.016502 -0.967422 0.506062
H	-1.314789 1.516087 -0.129609
H	-0.772344 0.727471 1.348502
H	1.254706 1.543987 0.182345
H	0.710663 0.798432 -1.335955
H	1.619226 -0.616035 1.085915
H	2.107323 -0.835179 -0.478371
H	0.525534 -1.265570 -0.013420
all32_cgenff q  epsilon (kJ/mol) sigma (AA)
-0.103259 0.234304 3.58141
-0.748994 0.25104 3.54578
-0.125906 0.23012 3.87541
-0.586638 0.8368 3.29633
0.332303 0.04184 1.55907
0.341456 0.04184 1.55907
0.166845 0.14644 2.38761
0.146232 0.14644 2.38761
0.182773 0.14644 2.38761
0.172840 0.14644 2.38761
0.388441 0.192464 0.400014
0.391306 0.192464 0.400014
0.442603 0.192464 0.400014
