 7
 Electronic Energy = -698.050253492 UPDATED
S	0.032367 -0.145438 0.074907
O	-0.477278 -0.118456 1.439660
O	0.629328 -1.318302 -0.517357
O	-1.155320 0.429854 -0.890196
O	1.091955 1.045610 -0.157257
H	0.776194 1.849428 0.292682
H	-2.003555 0.167922 -0.489989
all32_cgenff q  epsilon (kJ/mol) sigma (AA)
2.79505  1.0455   3.55   # S
-1.01439  1.0455   3.15   # O
-0.97955  1.0455   3.15   # O
-0.94960  1.0455   3.15   # O
-0.94251  1.0455   3.15   # O
0.54617  0.19246  0.4 # HGP1
0.54483  0.19246  0.4 # HGP1
