4
HIO2-M0001-wb97-opt-PC.log	Energy: -280325.2185358
H          1.88904        0.95061        0.75732
O          1.66675        0.60868       -0.11432
I         -0.09069       -0.27242        0.00465
O         -1.30207        1.07726       -0.01115
HIO2-M0001-wb97-opt-PC q epsilon (kJ/mol) sigma (AA)
0.339059 0.1255 0.400
-0.448846 1.0455 3.15
0.545401 0.6276 4.0447
-0.435614 1.0455 3.15
