7
I2O5-PC.log	Energy: -607036.6857970
I          1.63748        0.01397        0.23197
O         -0.03566       -0.78136       -0.54471
I         -1.74779        0.08429       -0.21932
O         -1.16319        1.23172        1.00798
O         -2.63603       -1.20521        0.59351
O          1.83716        1.38135       -0.86804
O          2.72851       -1.27741       -0.27259
I2O5-PC q epsilon (kJ/mol) sigma (AA)
1.118259 0.6276 4.0447
-0.407583 1.0455 3.15
1.124813 0.6276 4.0447
-0.503064 1.0455 3.15
-0.442741 1.0455 3.15
-0.458249 1.0455 3.15
-0.431436 1.0455 3.15
