 7
 Electronic_Energy: -95.2259847720
N	-0.748782 0.000002 -0.119190
H	-1.152929 -0.815318 0.326039
H	-1.152924 0.815327 0.326034
C	0.708924 0.000001 0.017609
H	1.108301 -0.878372 -0.486018
H	1.108358 0.878240 -0.486209
H	1.077120 0.000101 1.048824
all32_cgenff q  epsilon (kJ/mol) sigma (AA)
-0.647908 0.25104 3.54578
0.276173 0.04184 1.55907
0.276173 0.04184 1.55907
-0.212583 0.33472 3.54578
0.112577 0.16736 2.24506
0.112581 0.16736 2.24506
0.082987 0.16736 2.24506
