 9
 Electronic_Energy: -662.239075346
S	-0.088049 -0.135814 0.052205
O	-0.730370 1.037871 -0.800512
O	-0.234427 -1.348684 -0.672255
H	-1.426786 1.457514 -0.308742
O	-0.613537 -0.013534 1.375086
C	1.609075 0.341039 0.028654
H	1.937824 0.388771 -0.999327
H	1.712392 1.297658 0.518991
H	2.157580 -0.422377 0.563320
all32_cgenff q  epsilon (kJ/mol) sigma (AA)
1.658813   1.05     3.55   # S 
-0.708240  1.05     3.15   # O 0.8-1 3.15
-0.692872  1.05     3.15   # O 0.8-1 3.15
0.430134   0.19     0.4    # H 0.1-0.2 0.4-3 | OH 0.16 0.4 | CH 0.12 2.4
-0.756046  1.05     3.15   # O 0.8-1 3.15
-0.475247  0.30     3.6    # C 0.2-0.5 3.5-3.6 
0.181253   0.13     2.4    # H 0.1-0.2 0.4-3 | OH 0.16 0.4 | CH 0.12 2.4
0.170823   0.13     2.4    # H 0.1-0.2 0.4-3 | OH 0.16 0.4 | CH 0.12 2.4
0.191383   0.13     2.4    # H 0.1-0.2 0.4-3 | OH 0.16 0.4 | CH 0.12 2.4
