16
Energy:    -96.52665987
    S      5.36036221      2.92231676      2.58524733
    O      6.93297061      3.10355873      2.69151674
    O      4.90234685      3.63706919      1.44653167
    H      7.16157573      3.50502460      3.52187695
    O      4.82880904      3.20507976      3.88085548
    C      5.25749273      1.19399012      2.25286469
    H      5.80163493      0.98660777      1.34291908
    H      5.66953580      0.64982049      3.08971869
    H      4.20935071      0.96022883      2.12525823
    N      5.15551073      4.77726028      6.37210992
    H      4.86483381      4.22809120      5.56394902
    H      4.67472439      5.67205916      6.28618114
    H      4.74190531      4.31747284      7.18249893
    O      7.58260333      4.25274118      5.09329413
    H      6.76679651      4.43402164      5.57265175
    H      8.27527070      4.70136253      5.59042380
