16
Energy:    -78.32777828
    S      4.01665624      3.70267562      2.00170556
    O      2.64152388      3.20018308      1.39035356
    O      3.75210574      4.81018323      2.85068281
    H      2.66853671      3.24474626      0.44155556
    O      4.92728627      3.82871443      0.90810082
    C      4.45331778      2.31375501      2.99588841
    H      3.66763940      2.14866180      3.71876663
    H      4.58739506      1.45284623      2.35785703
    H      5.37826983      2.56427626      3.49711916
    N      7.33016031      5.59003036      1.45864434
    H      8.20522662      5.23469216      1.07498105
    H      7.20639361      6.51713665      1.05323097
    H      6.59518783      5.01074057      1.05436339
    O      6.45427030      4.81007014      4.00835036
    H      5.62165403      5.29470571      4.01645113
    H      6.92035396      5.11746724      3.22320060
