16
Energy:    -74.90563657
    S      2.48743508      2.92504249      4.19893047
    O      3.92879385      2.26439338      4.14177557
    O      1.54904389      2.00109795      3.66688637
    H      4.51389642      2.79845077      3.61701761
    O      2.61561552      4.23258323      3.63767193
    C      2.25304463      3.03528164      5.94280024
    H      2.31440541      2.04098197      6.36077416
    H      3.00963400      3.68379626      6.35900453
    H      1.26675999      3.44936275      6.10188794
    N      5.78337547      3.90307713      2.51714849
    H      6.60463058      4.50477755      2.46518270
    H      5.09122450      4.32542468      1.89928616
    H      6.05367068      3.02671058      2.07203450
    O      4.86969465      5.39112067      4.83733017
    H      3.99824939      5.43351065      4.42870644
    H      5.42450001      4.92021072      4.20596503
