16
Energy:    -73.70446104
    S      4.00697497      3.65316498      6.83766326
    O      4.95764028      4.87624121      7.18053208
    O      4.73081335      2.44947285      7.04862700
    H      5.05765166      5.43724488      6.42013360
    O      3.42353030      3.93464057      5.56429451
    C      2.79642619      3.82061051      8.10837447
    H      3.29279587      3.75626436      9.06575418
    H      2.29156954      4.76794542      7.99047189
    H      2.10097956      3.00092729      7.99004082
    N      5.82712048      5.65162587      4.52886147
    H      6.31922408      6.13847098      3.78051684
    H      4.96910842      5.29486735      4.10964438
    H      6.39231634      4.83088886      4.74368393
    O      6.98406041      3.00434580      5.27937329
    H      7.72091527      2.38380691      5.26658603
    H      6.34529855      2.62871398      5.89506081
