3
Energy:      0.00000000
    O     -0.02001027      0.28142079      0.26855257
    H     -0.34745503      0.31356065     -0.63694953
    H      0.36746530     -0.59498145      0.36839696
