 3
 Electronic_Energy: -776.558137654
H	3.216780 0.728400 -0.280740
O	2.694040 -0.046700 -0.058800
H	2.346440 0.088160 0.834110
