      -----------------------------------------------------------      
     |                   =====================                   |     
     |                           x T B                           |     
     |                   =====================                   |     
     |                         S. Grimme                         |     
     |          Mulliken Center for Theoretical Chemistry        |     
     |                    University of Bonn                     |     
     |                 Version 6.0.1 (SAW181210)                 |     
      -----------------------------------------------------------      

   This program is distributed in the hope that it will be useful,
   but WITHOUT ANY WARRANTY; without even the implied warranty of
   MERCHANTABILITY or FITNESS FOR A PARTICULAR PURPOSE.
   
   FOR NON-COMMERCIAL, ACADEMIA USE ONLY.
   
   Cite this work as:
   S. Grimme, C. Bannwarth, P. Shushkov, J. Comput. Theory Chem., 2017,
   13, 1989-2009.
   C. Bannwarth, S. Ehlert and S. Grimme., ChemRxiv, 2018, preprint.
   http://doi.org/10.26434/chemrxiv.7246238.v1
   
   for sTDA-xTB:
   S. Grimme and C. Bannwarth, J. Chem. Phys., 2016, 145, 054103.
   
   in the mass-spec context:
   V. Asgeirsson, C. Bauer and S. Grimme, Chem. Sci., 2017, 8, 4879.
   
   if GBSA is used:
   P. Shushkov, F. März and S. Grimme, unpublished.
   
   for ANC optimizer:
   S. Grimme, unpublished.
   Rational Function algorithm used in ANCopt:
   F. Eckert, P. Pulay, H.-J. Werner, J. Comput. Chem., 1997, 18, 1473.
   
   with help from (in alphabetical order)
   C. Bannwarth, F. Bohle, G. Brandenburg, E. Caldeweyher, M. Checinski,
   S. Dohm, S. Ehlert, S. Ehrlich, F. März, H. Neugebauer, J. Pisarek,
   P. Pracht, P. Shushkov, and S. Spicher.
   
 * started run on 2019/09/09 at 16:38:47.279     
========================================================================
 # omp threads = 1
========================================================================
number of atoms            : 6
number of electrons        : 16
charge                     : 0
spin                       : .0
first test random number   : .7471

########################################################################
# WARNING! Please study the warnings concerning your input carefully
#  - XTBPATH is not set, using XTBHOME instead
########################################################################

           ------------------------------------------------- 
          |                 G F N 2 - x T B                 |
          | Geometry, Frequencies, Noncovalent interactions |
          |            JCTC 2018 parametrisation            |
           ------------------------------------------------- 
      method parameters     
 k(s)        :  1.8500
 k(p)        :  2.2300
 k(d)        :  2.2300
 k(f)        :  2.0000
 kEN (H0ij)  : -2.0000
 D4 a1       :  0.5200
 D4 a2       :  5.0000
 D4 s6       :  1.0000
 D4 s8       :  2.7000
 D4 s9       :  5.0000
 alphaj      :  2.0000


            Z     q(EN)     CN     RAES       Cart. coordinates
     1  O   6.0   -0.30    2.00    1.83     0.28793     0.52856    -1.86985
     2  H   1.0    0.14    0.97    1.43    -0.67853     1.78097    -2.77098
     3  H   1.0    0.14    0.97    1.43     1.86484     0.39766    -2.77031
     4  O   6.0   -0.27    1.93    1.82    -0.28820    -0.52856     3.07100
     5  H   1.0    0.16    1.03    1.43    -0.02845    -0.05173     1.33325
     6  H   1.0    0.14    0.97    1.43    -1.15759    -2.12689     3.00688

  Z AO/shell   Hii/eV     exponent
  1     Wed Apr 25 08:07:45 CEST 2018   EN: 2.200 GM2: 0.406  GM3: 0.0800  RAES: 1.40
     1s    -10.707211    1.230000
  8     Wed Apr 25 08:07:45 CEST 2018   EN: 3.440 GM2: 0.452  GM3:-0.0517  RAES: 1.80
     2s    -20.229985    2.439742
     2p    -15.503117    2.137023
 no old-style atom pair restraining (fixing) potential

molecular fragmentation (1/2 indicates fragments):
111222
# atoms in fragment 1/2:     3     3
 fragment masses (1/2) :       18.02       18.02
CMA distance (Bohr)    :   5.121
constraining FC (au)   :  0.0500
           ------------------------------------------------- 
          |        Self-Consistent Charge Iterations        |
           ------------------------------------------------- 

 Ncao       : 12
 Nao        : 12
 Nshell     : 8
 Nel        : 16
 T(el)      :   300.0
 intcut     :    25.0
 scfconv/Eh :  0.100E-05
   qconv/e  :  0.100E-03
 intneglect :  0.100E-07
 broydamp   :      0.250
 iter      E             dE          RMSdq      gap      omega  full diag
   1    -10.1842428 -0.101842E+02  0.590E+00   14.74       0.0  T
   2    -10.2007509 -0.165082E-01  0.402E+00   13.79       1.0  T
   3    -10.2127678 -0.120169E-01  0.994E-01   11.79       1.0  T
   4    -10.2099683  0.279952E-02  0.150E+00   12.81       1.0  T
   5    -10.2133873 -0.341895E-02  0.959E-02   12.06       1.0  T
   6    -10.2133842  0.304656E-05  0.856E-02   12.07       1.0  T
   7    -10.2133947 -0.104519E-04  0.461E-03   12.03       8.9  T
   8    -10.2133947 -0.200897E-07  0.116E-03   12.03      35.1  T
   9    -10.2133947  0.124464E-08  0.122E-03   12.03      33.4  T
  10    -10.2133947 -0.207814E-08  0.158E-04   12.03     258.8  T
  11    -10.2133947 -0.278089E-10  0.425E-05   12.03     960.6  T
speedup  0.81
cpu  time for SCC    0.00 s
wall time for SCC    0.00 s

   *** convergence criteria satisfied after 11 iterations ***

          eigenvalues
 #    :           1          2          3          4          5          6          7          8
 occ. :        2.000      2.000      2.000      2.000      2.000      2.000      2.000      2.000
 eps  :       -19.199    -17.523    -16.076    -15.194    -14.109    -13.039    -12.642    -11.133
 #    :           9         10         11         12
 occ. :        0.000      0.000      0.000      0.000
 eps  :         0.899      4.207      5.864      9.212


   #   Z            q   n(s)   n(p)   n(d)      C6AA      α(0)
   1   8 O     -0.563  1.737  4.826  0.000    24.310     6.655
   2   1 H      0.294  0.706  0.000  0.000     0.739     1.350
   3   1 H      0.294  0.706  0.000  0.000     0.739     1.350
   4   8 O     -0.601  1.747  4.854  0.000    25.212     6.777
   5   1 H      0.309  0.691  0.000  0.000     0.695     1.310
   6   1 H      0.267  0.733  0.000  0.000     0.831     1.432

 Mol. C6AA /au·bohr⁶  :        178.704287
 Mol. C8AA /au·bohr⁸  :       3200.562526
 Mol. α(0) /au        :         18.872754

 
 Wiberg/Mayer (AO) data. WBOs > 0.1 written file <wbo>
 largest (>0.05) Wiberg bond orders for each atom
           total WBO             WBO to atom ...
     1  O   1.873    H    3 0.909    H    2 0.909
     2  H   0.913    O    1 0.909
     3  H   0.913    O    1 0.909
     4  O   1.817    H    6 0.929    H    5 0.864
     5  H   0.905    O    4 0.864
     6  H   0.929    O    4 0.929
 MOs/occ written to file <molden.input>
 
molecular dipole:
                 x           y           z       tot (Debye)
 q only:        0.043       0.078      -1.211
   full:        0.041       0.074      -1.631       4.152
molecular quadrupole (traceless):
                xx          xy          yy          xz          yz          zz
 q only:        0.569       0.513       1.232      -1.607      -2.955      -1.801
  q+dip:        0.718       0.761       1.701      -2.281      -4.195      -2.419
   full:        0.663       0.799       1.695      -2.382      -4.381      -2.357

SCC energy    :     -10.2133947
rep           :       0.0662256
ES            :       0.0637867
AES           :      -0.0026593
AXC           :      -0.0014290
disp          :      -0.0008102
XB            :       0.0000000
fix           :       0.0000000
total E       :     -10.1471690
atomizationE  :       1.0416524      653.65
(atE without considering molecular charge,
 total energy contains solvation terms)
H-L gap (eV)  :         12.0327

------------------------------------------------------------------------
 * finished run on 2019/09/09 at 16:38:47.319     
------------------------------------------------------------------------
 total:
 * wall-time:     0 d,  0 h,  0 min,  0.038 sec
 *  cpu-time:     0 d,  0 h,  0 min,  0.033 sec
 * ratio c/w:     0.866 speedup
 SCF:
 * wall-time:     0 d,  0 h,  0 min,  0.018 sec
 *  cpu-time:     0 d,  0 h,  0 min,  0.015 sec
 * ratio c/w:     0.843 speedup

