      -----------------------------------------------------------      
     |                   =====================                   |     
     |                           x T B                           |     
     |                   =====================                   |     
     |                         S. Grimme                         |     
     |          Mulliken Center for Theoretical Chemistry        |     
     |                    University of Bonn                     |     
     |                 Version 6.0.1 (SAW181210)                 |     
      -----------------------------------------------------------      

   This program is distributed in the hope that it will be useful,
   but WITHOUT ANY WARRANTY; without even the implied warranty of
   MERCHANTABILITY or FITNESS FOR A PARTICULAR PURPOSE.
   
   FOR NON-COMMERCIAL, ACADEMIA USE ONLY.
   
   Cite this work as:
   S. Grimme, C. Bannwarth, P. Shushkov, J. Comput. Theory Chem., 2017,
   13, 1989-2009.
   C. Bannwarth, S. Ehlert and S. Grimme., ChemRxiv, 2018, preprint.
   http://doi.org/10.26434/chemrxiv.7246238.v1
   
   for sTDA-xTB:
   S. Grimme and C. Bannwarth, J. Chem. Phys., 2016, 145, 054103.
   
   in the mass-spec context:
   V. Asgeirsson, C. Bauer and S. Grimme, Chem. Sci., 2017, 8, 4879.
   
   if GBSA is used:
   P. Shushkov, F. März and S. Grimme, unpublished.
   
   for ANC optimizer:
   S. Grimme, unpublished.
   Rational Function algorithm used in ANCopt:
   F. Eckert, P. Pulay, H.-J. Werner, J. Comput. Chem., 1997, 18, 1473.
   
   with help from (in alphabetical order)
   C. Bannwarth, F. Bohle, G. Brandenburg, E. Caldeweyher, M. Checinski,
   S. Dohm, S. Ehlert, S. Ehrlich, F. März, H. Neugebauer, J. Pisarek,
   P. Pracht, P. Shushkov, and S. Spicher.
   
 * started run on 2019/09/09 at 16:38:47.515     
========================================================================
 # omp threads = 1
========================================================================
number of atoms            : 6
number of electrons        : 16
charge                     : 0
spin                       : .0
first test random number   : .0902

########################################################################
# WARNING! Please study the warnings concerning your input carefully
#  - XTBPATH is not set, using XTBHOME instead
########################################################################

           ------------------------------------------------- 
          |                 G F N 2 - x T B                 |
          | Geometry, Frequencies, Noncovalent interactions |
          |            JCTC 2018 parametrisation            |
           ------------------------------------------------- 
      method parameters     
 k(s)        :  1.8500
 k(p)        :  2.2300
 k(d)        :  2.2300
 k(f)        :  2.0000
 kEN (H0ij)  : -2.0000
 D4 a1       :  0.5200
 D4 a2       :  5.0000
 D4 s6       :  1.0000
 D4 s8       :  2.7000
 D4 s9       :  5.0000
 alphaj      :  2.0000


            Z     q(EN)     CN     RAES       Cart. coordinates
     1  O   6.0   -0.27    1.92    1.82    -2.07076    -0.27253     2.67162
     2  H   1.0    0.14    0.97    1.43    -2.82812     0.34174     1.13419
     3  H   1.0    0.14    0.97    1.43    -0.51812    -1.07221     2.15738
     4  O   6.0   -0.29    1.92    1.82     1.09715     0.46948    -1.84095
     5  H   1.0    0.14    0.97    1.43     1.77243    -0.49770    -3.22774
     6  H   1.0    0.13    0.97    1.43     2.54742     1.03122    -0.89449

  Z AO/shell   Hii/eV     exponent
  1     Wed Apr 25 08:07:45 CEST 2018   EN: 2.200 GM2: 0.406  GM3: 0.0800  RAES: 1.40
     1s    -10.707211    1.230000
  8     Wed Apr 25 08:07:45 CEST 2018   EN: 3.440 GM2: 0.452  GM3:-0.0517  RAES: 1.80
     2s    -20.229985    2.439742
     2p    -15.503117    2.137023
 no old-style atom pair restraining (fixing) potential

molecular fragmentation (1/2 indicates fragments):
111222
# atoms in fragment 1/2:     3     3
 fragment masses (1/2) :       18.02       18.02
CMA distance (Bohr)    :   5.532
constraining FC (au)   :  0.0500
           ------------------------------------------------- 
          |        Self-Consistent Charge Iterations        |
           ------------------------------------------------- 

 Ncao       : 12
 Nao        : 12
 Nshell     : 8
 Nel        : 16
 T(el)      :   300.0
 intcut     :    25.0
 scfconv/Eh :  0.100E-05
   qconv/e  :  0.100E-03
 intneglect :  0.100E-07
 broydamp   :      0.250
 iter      E             dE          RMSdq      gap      omega  full diag
   1    -10.1811958 -0.101812E+02  0.592E+00   15.14       0.0  T
   2    -10.1984432 -0.172474E-01  0.401E+00   14.35       1.0  T
   3    -10.2108491 -0.124059E-01  0.982E-01   12.71       1.0  T
   4    -10.2079082  0.294091E-02  0.151E+00   13.66       1.0  T
   5    -10.2114414 -0.353328E-02  0.947E-02   12.99       1.0  T
   6    -10.2114348  0.667676E-05  0.981E-02   13.00       1.0  T
   7    -10.2114492 -0.144439E-04  0.264E-03   12.96      15.5  T
   8    -10.2114492 -0.907064E-08  0.723E-04   12.96      56.5  T
   9    -10.2114492 -0.118590E-09  0.114E-04   12.96     356.6  T
speedup  0.88
cpu  time for SCC    0.00 s
wall time for SCC    0.00 s

   *** convergence criteria satisfied after 9 iterations ***

          eigenvalues
 #    :           1          2          3          4          5          6          7          8
 occ. :        2.000      2.000      2.000      2.000      2.000      2.000      2.000      2.000
 eps  :       -18.930    -17.902    -15.830    -14.818    -14.460    -13.371    -12.579    -11.573
 #    :           9         10         11         12
 occ. :        0.000      0.000      0.000      0.000
 eps  :         1.389      3.414      6.040      7.127


   #   Z            q   n(s)   n(p)   n(d)      C6AA      α(0)
   1   8 O     -0.575  1.742  4.833  0.000    24.592     6.693
   2   1 H      0.288  0.712  0.000  0.000     0.758     1.367
   3   1 H      0.283  0.717  0.000  0.000     0.774     1.382
   4   8 O     -0.566  1.739  4.827  0.000    24.383     6.664
   5   1 H      0.283  0.717  0.000  0.000     0.774     1.382
   6   1 H      0.286  0.714  0.000  0.000     0.764     1.373

 Mol. C6AA /au·bohr⁶  :        178.297500
 Mol. C8AA /au·bohr⁸  :       3188.269380
 Mol. α(0) /au        :         18.861482

 
 Wiberg/Mayer (AO) data. WBOs > 0.1 written file <wbo>
 largest (>0.05) Wiberg bond orders for each atom
           total WBO             WBO to atom ...
     1  O   1.835    H    3 0.915    H    2 0.915
     2  H   0.917    O    1 0.915
     3  H   0.920    O    1 0.915
     4  O   1.845    H    5 0.919    H    6 0.917
     5  H   0.920    O    4 0.919
     6  H   0.918    O    4 0.917
 MOs/occ written to file <molden.input>
 
molecular dipole:
                 x           y           z       tot (Debye)
 q only:        0.839      -0.160      -0.727
   full:        1.191      -0.232      -1.028       4.044
molecular quadrupole (traceless):
                xx          xy          yy          xz          yz          zz
 q only:        2.275      -0.352       0.152       1.215       0.833      -2.427
  q+dip:        3.172      -0.414       0.302       1.628       1.112      -3.474
   full:        3.317      -0.594       0.047       1.697       1.263      -3.364

SCC energy    :     -10.2114492
rep           :       0.0662050
ES            :       0.0623301
AES           :      -0.0003952
AXC           :      -0.0015158
disp          :      -0.0007949
XB            :       0.0000000
fix           :       0.0000000
total E       :     -10.1452442
atomizationE  :       1.0397275      652.44
(atE without considering molecular charge,
 total energy contains solvation terms)
H-L gap (eV)  :         12.9615

------------------------------------------------------------------------
 * finished run on 2019/09/09 at 16:38:47.554     
------------------------------------------------------------------------
 total:
 * wall-time:     0 d,  0 h,  0 min,  0.038 sec
 *  cpu-time:     0 d,  0 h,  0 min,  0.034 sec
 * ratio c/w:     0.904 speedup
 SCF:
 * wall-time:     0 d,  0 h,  0 min,  0.017 sec
 *  cpu-time:     0 d,  0 h,  0 min,  0.015 sec
 * ratio c/w:     0.867 speedup

