      -----------------------------------------------------------      
     |                   =====================                   |     
     |                           x T B                           |     
     |                   =====================                   |     
     |                         S. Grimme                         |     
     |          Mulliken Center for Theoretical Chemistry        |     
     |                    University of Bonn                     |     
     |                 Version 6.0.1 (SAW181210)                 |     
      -----------------------------------------------------------      

   This program is distributed in the hope that it will be useful,
   but WITHOUT ANY WARRANTY; without even the implied warranty of
   MERCHANTABILITY or FITNESS FOR A PARTICULAR PURPOSE.
   
   FOR NON-COMMERCIAL, ACADEMIA USE ONLY.
   
   Cite this work as:
   S. Grimme, C. Bannwarth, P. Shushkov, J. Comput. Theory Chem., 2017,
   13, 1989-2009.
   C. Bannwarth, S. Ehlert and S. Grimme., ChemRxiv, 2018, preprint.
   http://doi.org/10.26434/chemrxiv.7246238.v1
   
   for sTDA-xTB:
   S. Grimme and C. Bannwarth, J. Chem. Phys., 2016, 145, 054103.
   
   in the mass-spec context:
   V. Asgeirsson, C. Bauer and S. Grimme, Chem. Sci., 2017, 8, 4879.
   
   if GBSA is used:
   P. Shushkov, F. März and S. Grimme, unpublished.
   
   for ANC optimizer:
   S. Grimme, unpublished.
   Rational Function algorithm used in ANCopt:
   F. Eckert, P. Pulay, H.-J. Werner, J. Comput. Chem., 1997, 18, 1473.
   
   with help from (in alphabetical order)
   C. Bannwarth, F. Bohle, G. Brandenburg, E. Caldeweyher, M. Checinski,
   S. Dohm, S. Ehlert, S. Ehrlich, F. März, H. Neugebauer, J. Pisarek,
   P. Pracht, P. Shushkov, and S. Spicher.
   
 * started run on 2019/09/09 at 16:38:47.645     
========================================================================
 # omp threads = 1
========================================================================
number of atoms            : 6
number of electrons        : 16
charge                     : 0
spin                       : .0
first test random number   : .7838

########################################################################
# WARNING! Please study the warnings concerning your input carefully
#  - XTBPATH is not set, using XTBHOME instead
########################################################################

           ------------------------------------------------- 
          |                 G F N 2 - x T B                 |
          | Geometry, Frequencies, Noncovalent interactions |
          |            JCTC 2018 parametrisation            |
           ------------------------------------------------- 
      method parameters     
 k(s)        :  1.8500
 k(p)        :  2.2300
 k(d)        :  2.2300
 k(f)        :  2.0000
 kEN (H0ij)  : -2.0000
 D4 a1       :  0.5200
 D4 a2       :  5.0000
 D4 s6       :  1.0000
 D4 s8       :  2.7000
 D4 s9       :  5.0000
 alphaj      :  2.0000


            Z     q(EN)     CN     RAES       Cart. coordinates
     1  O   6.0   -0.27    1.92    1.82    -2.22937     2.04221     1.89779
     2  H   1.0    0.14    0.97    1.43    -0.99809     2.20495     3.22898
     3  H   1.0    0.14    0.97    1.43    -1.49577     0.88102     0.70276
     4  O   6.0   -0.28    1.92    1.82     2.06084    -1.83598    -1.40544
     5  H   1.0    0.14    0.97    1.43     0.61922    -2.85411    -1.85239
     6  H   1.0    0.14    0.97    1.43     2.04318    -0.43808    -2.57170

  Z AO/shell   Hii/eV     exponent
  1     Wed Apr 25 08:07:45 CEST 2018   EN: 2.200 GM2: 0.406  GM3: 0.0800  RAES: 1.40
     1s    -10.707211    1.230000
  8     Wed Apr 25 08:07:45 CEST 2018   EN: 3.440 GM2: 0.452  GM3:-0.0517  RAES: 1.80
     2s    -20.229985    2.439742
     2p    -15.503117    2.137023
 no old-style atom pair restraining (fixing) potential

molecular fragmentation (1/2 indicates fragments):
111222
# atoms in fragment 1/2:     3     3
 fragment masses (1/2) :       18.02       18.02
CMA distance (Bohr)    :   6.543
constraining FC (au)   :  0.0500
           ------------------------------------------------- 
          |        Self-Consistent Charge Iterations        |
           ------------------------------------------------- 

 Ncao       : 12
 Nao        : 12
 Nshell     : 8
 Nel        : 16
 T(el)      :   300.0
 intcut     :    25.0
 scfconv/Eh :  0.100E-05
   qconv/e  :  0.100E-03
 intneglect :  0.100E-07
 broydamp   :      0.250
 iter      E             dE          RMSdq      gap      omega  full diag
   1    -10.1789033 -0.101789E+02  0.592E+00   15.30       0.0  T
   2    -10.1966420 -0.177387E-01  0.400E+00   14.59       1.0  T
   3    -10.2092230 -0.125810E-01  0.962E-01   13.16       1.0  T
   4    -10.2063576  0.286546E-02  0.148E+00   14.02       1.0  T
   5    -10.2098227 -0.346509E-02  0.986E-02   13.44       1.0  T
   6    -10.2098162  0.651576E-05  0.101E-01   13.45       1.0  T
   7    -10.2098320 -0.158590E-04  0.290E-03   13.41      14.1  T
   8    -10.2098320 -0.113163E-07  0.776E-04   13.42      52.6  T
   9    -10.2098320 -0.201860E-09  0.785E-05   13.42     520.1  T
speedup  1.11
cpu  time for SCC    0.00 s
wall time for SCC    0.00 s

   *** convergence criteria satisfied after 9 iterations ***

          eigenvalues
 #    :           1          2          3          4          5          6          7          8
 occ. :        2.000      2.000      2.000      2.000      2.000      2.000      2.000      2.000
 eps  :       -18.918    -18.387    -15.804    -15.300    -14.364    -13.850    -12.582    -12.046
 #    :           9         10         11         12
 occ. :        0.000      0.000      0.000      0.000
 eps  :         1.369      2.752      6.095      6.735


   #   Z            q   n(s)   n(p)   n(d)      C6AA      α(0)
   1   8 O     -0.570  1.744  4.826  0.000    24.485     6.678
   2   1 H      0.284  0.716  0.000  0.000     0.773     1.381
   3   1 H      0.285  0.715  0.000  0.000     0.768     1.377
   4   8 O     -0.567  1.743  4.824  0.000    24.414     6.669
   5   1 H      0.284  0.716  0.000  0.000     0.771     1.380
   6   1 H      0.285  0.715  0.000  0.000     0.768     1.376

 Mol. C6AA /au·bohr⁶  :        178.251959
 Mol. C8AA /au·bohr⁸  :       3186.714451
 Mol. α(0) /au        :         18.860584

 
 Wiberg/Mayer (AO) data. WBOs > 0.1 written file <wbo>
 largest (>0.05) Wiberg bond orders for each atom
           total WBO             WBO to atom ...
     1  O   1.837    H    2 0.919    H    3 0.916
     2  H   0.920    O    1 0.919
     3  H   0.919    O    1 0.916
     4  O   1.842    H    5 0.919    H    6 0.918
     5  H   0.919    O    4 0.919
     6  H   0.919    O    4 0.918
 MOs/occ written to file <molden.input>
 
molecular dipole:
                 x           y           z       tot (Debye)
 q only:        0.151      -0.182      -0.428
   full:        0.212      -0.254      -0.602       1.746
molecular quadrupole (traceless):
                xx          xy          yy          xz          yz          zz
 q only:       -4.254       4.478      -0.202       1.528       0.516       4.456
  q+dip:       -6.028       6.292      -0.296       2.093       0.726       6.324
   full:       -6.041       6.360      -0.317       2.271       0.769       6.358

SCC energy    :     -10.2098320
rep           :       0.0662055
ES            :       0.0626533
AES           :       0.0004210
AXC           :      -0.0015268
disp          :      -0.0006921
XB            :       0.0000000
fix           :       0.0000000
total E       :     -10.1436264
atomizationE  :       1.0381098      651.42
(atE without considering molecular charge,
 total energy contains solvation terms)
H-L gap (eV)  :         13.4158

------------------------------------------------------------------------
 * finished run on 2019/09/09 at 16:38:47.685     
------------------------------------------------------------------------
 total:
 * wall-time:     0 d,  0 h,  0 min,  0.039 sec
 *  cpu-time:     0 d,  0 h,  0 min,  0.034 sec
 * ratio c/w:     0.878 speedup
 SCF:
 * wall-time:     0 d,  0 h,  0 min,  0.018 sec
 *  cpu-time:     0 d,  0 h,  0 min,  0.015 sec
 * ratio c/w:     0.829 speedup

