      -----------------------------------------------------------      
     |                   =====================                   |     
     |                           x T B                           |     
     |                   =====================                   |     
     |                         S. Grimme                         |     
     |          Mulliken Center for Theoretical Chemistry        |     
     |                    University of Bonn                     |     
     |                 Version 6.0.1 (SAW181210)                 |     
      -----------------------------------------------------------      

   This program is distributed in the hope that it will be useful,
   but WITHOUT ANY WARRANTY; without even the implied warranty of
   MERCHANTABILITY or FITNESS FOR A PARTICULAR PURPOSE.
   
   FOR NON-COMMERCIAL, ACADEMIA USE ONLY.
   
   Cite this work as:
   S. Grimme, C. Bannwarth, P. Shushkov, J. Comput. Theory Chem., 2017,
   13, 1989-2009.
   C. Bannwarth, S. Ehlert and S. Grimme., ChemRxiv, 2018, preprint.
   http://doi.org/10.26434/chemrxiv.7246238.v1
   
   for sTDA-xTB:
   S. Grimme and C. Bannwarth, J. Chem. Phys., 2016, 145, 054103.
   
   in the mass-spec context:
   V. Asgeirsson, C. Bauer and S. Grimme, Chem. Sci., 2017, 8, 4879.
   
   if GBSA is used:
   P. Shushkov, F. März and S. Grimme, unpublished.
   
   for ANC optimizer:
   S. Grimme, unpublished.
   Rational Function algorithm used in ANCopt:
   F. Eckert, P. Pulay, H.-J. Werner, J. Comput. Chem., 1997, 18, 1473.
   
   with help from (in alphabetical order)
   C. Bannwarth, F. Bohle, G. Brandenburg, E. Caldeweyher, M. Checinski,
   S. Dohm, S. Ehlert, S. Ehrlich, F. März, H. Neugebauer, J. Pisarek,
   P. Pracht, P. Shushkov, and S. Spicher.
   
 * started run on 2019/09/09 at 16:38:47.813     
========================================================================
 # omp threads = 1
========================================================================
number of atoms            : 6
number of electrons        : 16
charge                     : 0
spin                       : .0
first test random number   : .9914

########################################################################
# WARNING! Please study the warnings concerning your input carefully
#  - XTBPATH is not set, using XTBHOME instead
########################################################################

           ------------------------------------------------- 
          |                 G F N 2 - x T B                 |
          | Geometry, Frequencies, Noncovalent interactions |
          |            JCTC 2018 parametrisation            |
           ------------------------------------------------- 
      method parameters     
 k(s)        :  1.8500
 k(p)        :  2.2300
 k(d)        :  2.2300
 k(f)        :  2.0000
 kEN (H0ij)  : -2.0000
 D4 a1       :  0.5200
 D4 a2       :  5.0000
 D4 s6       :  1.0000
 D4 s8       :  2.7000
 D4 s9       :  5.0000
 alphaj      :  2.0000


            Z     q(EN)     CN     RAES       Cart. coordinates
     1  O   6.0   -0.28    1.92    1.82    -1.47666    -0.45581    -2.47036
     2  H   1.0    0.14    0.97    1.43    -2.53855    -0.29441    -3.94039
     3  H   1.0    0.13    0.97    1.43    -2.54238    -0.02880    -1.05738
     4  O   6.0   -0.27    1.92    1.82     2.61358     0.10746     3.06876
     5  H   1.0    0.14    0.97    1.43     2.97677     1.24914     1.69790
     6  H   1.0    0.14    0.97    1.43     0.96725    -0.57759     2.70147

  Z AO/shell   Hii/eV     exponent
  1     Wed Apr 25 08:07:45 CEST 2018   EN: 2.200 GM2: 0.406  GM3: 0.0800  RAES: 1.40
     1s    -10.707211    1.230000
  8     Wed Apr 25 08:07:45 CEST 2018   EN: 3.440 GM2: 0.452  GM3:-0.0517  RAES: 1.80
     2s    -20.229985    2.439742
     2p    -15.503117    2.137023
 no old-style atom pair restraining (fixing) potential

molecular fragmentation (1/2 indicates fragments):
111222
# atoms in fragment 1/2:     3     3
 fragment masses (1/2) :       18.02       18.02
CMA distance (Bohr)    :   6.861
constraining FC (au)   :  0.0500
           ------------------------------------------------- 
          |        Self-Consistent Charge Iterations        |
           ------------------------------------------------- 

 Ncao       : 12
 Nao        : 12
 Nshell     : 8
 Nel        : 16
 T(el)      :   300.0
 intcut     :    25.0
 scfconv/Eh :  0.100E-05
   qconv/e  :  0.100E-03
 intneglect :  0.100E-07
 broydamp   :      0.250
 iter      E             dE          RMSdq      gap      omega  full diag
   1    -10.1777427 -0.101777E+02  0.594E+00   15.40       0.0  T
   2    -10.1957438 -0.180011E-01  0.401E+00   14.66       1.0  T
   3    -10.2084540 -0.127102E-01  0.995E-01   13.16       1.0  T
   4    -10.2055367  0.291727E-02  0.150E+00   14.06       1.0  T
   5    -10.2090600 -0.352329E-02  0.107E-01   13.45       1.0  T
   6    -10.2090546  0.537421E-05  0.103E-01   13.46       1.0  T
   7    -10.2090708 -0.161997E-04  0.272E-03   13.42      15.0  T
   8    -10.2090708 -0.968483E-08  0.768E-04   13.42      53.1  T
   9    -10.2090708 -0.205304E-09  0.185E-04   13.42     221.1  T
speedup  1.14
cpu  time for SCC    0.00 s
wall time for SCC    0.00 s

   *** convergence criteria satisfied after 9 iterations ***

          eigenvalues
 #    :           1          2          3          4          5          6          7          8
 occ. :        2.000      2.000      2.000      2.000      2.000      2.000      2.000      2.000
 eps  :       -18.860    -18.214    -15.783    -15.122    -14.334    -13.677    -12.518    -11.871
 #    :           9         10         11         12
 occ. :        0.000      0.000      0.000      0.000
 eps  :         1.550      2.762      6.052      6.872


   #   Z            q   n(s)   n(p)   n(d)      C6AA      α(0)
   1   8 O     -0.565  1.741  4.824  0.000    24.362     6.662
   2   1 H      0.285  0.715  0.000  0.000     0.768     1.377
   3   1 H      0.280  0.720  0.000  0.000     0.784     1.391
   4   8 O     -0.567  1.743  4.825  0.000    24.413     6.669
   5   1 H      0.285  0.715  0.000  0.000     0.769     1.377
   6   1 H      0.282  0.718  0.000  0.000     0.777     1.384

 Mol. C6AA /au·bohr⁶  :        178.182864
 Mol. C8AA /au·bohr⁸  :       3184.255641
 Mol. α(0) /au        :         18.859426

 
 Wiberg/Mayer (AO) data. WBOs > 0.1 written file <wbo>
 largest (>0.05) Wiberg bond orders for each atom
           total WBO             WBO to atom ...
     1  O   1.840    H    3 0.921    H    2 0.918
     2  H   0.919    O    1 0.918
     3  H   0.922    O    1 0.921
     4  O   1.839    H    6 0.920    H    5 0.919
     5  H   0.919    O    4 0.919
     6  H   0.920    O    4 0.920
 MOs/occ written to file <molden.input>
 
molecular dipole:
                 x           y           z       tot (Debye)
 q only:       -0.963       0.297      -0.518
   full:       -1.375       0.424      -0.738       4.111
molecular quadrupole (traceless):
                xx          xy          yy          xz          yz          zz
 q only:        1.693       0.892       0.360      -1.244      -0.481      -2.053
  q+dip:        2.396       1.196       0.637      -1.749      -0.637      -3.033
   full:        2.496       1.284       0.347      -1.722      -0.745      -2.844

SCC energy    :     -10.2090708
rep           :       0.0662005
ES            :       0.0625463
AES           :       0.0006009
AXC           :      -0.0015468
disp          :      -0.0006459
XB            :       0.0000000
fix           :       0.0000000
total E       :     -10.1428703
atomizationE  :       1.0373537      650.95
(atE without considering molecular charge,
 total energy contains solvation terms)
H-L gap (eV)  :         13.4215

------------------------------------------------------------------------
 * finished run on 2019/09/09 at 16:38:47.854     
------------------------------------------------------------------------
 total:
 * wall-time:     0 d,  0 h,  0 min,  0.039 sec
 *  cpu-time:     0 d,  0 h,  0 min,  0.034 sec
 * ratio c/w:     0.881 speedup
 SCF:
 * wall-time:     0 d,  0 h,  0 min,  0.018 sec
 *  cpu-time:     0 d,  0 h,  0 min,  0.015 sec
 * ratio c/w:     0.838 speedup

