6
Energy:    -41.65691598
    O      1.02753776      0.14971908      0.04826924
    H      1.49367381      0.58691745      0.76921437
    H      1.61811630      0.20990192     -0.71053383
    O     -1.65043717     -0.05036412     -0.12596736
    H     -0.69708647      0.08046084     -0.07912313
    H     -1.79180422     -0.97663516      0.09814071
