6
Energy:     -8.03936613
    O     -0.05247014      0.49485474     -1.72584337
    H     -0.84035411      0.37107501     -2.26631033
    H      0.39407899     -0.35883097     -1.72715025
    O     -0.09878182     -0.33305075      2.14004905
    H     -0.12564945     -0.27095776      1.17900290
    H      0.72317653      0.09690972      2.40025200
