16
Energy:   -613.87820838
    C      5.23954307      9.12478355      5.64608232
    S      5.40553677      7.37011221      5.35679805
    O      4.21564100      7.00680338      4.59747751
    O      6.64707018      7.23584133      4.60499844
    O      5.45697249      6.77930378      6.68819337
    H      6.09676507      9.46725317      6.21183378
    H      5.19561369      9.63275976      4.69096286
    H      4.32906106      9.30110924      6.20474407
    N      5.73742622      3.83875710      6.16228599
    H      5.64720970      4.77606337      6.55282630
    H      6.58941301      3.45134626      6.56631028
    H      4.97102670      3.29771591      6.56117256
    O      5.64725843      4.87712306      3.66134132
    H      5.70079182      4.28586113      4.45178376
    H      4.77910055      5.34698438      3.60808540
    H      6.41047092      5.50414996      3.61590827
