16
Energy:   -613.85708067
    C      3.02626595      5.13755268      4.41675085
    S      4.64842767      5.64900243      4.96183921
    O      4.89430682      6.90403750      4.26266588
    O      4.52321348      5.79508431      6.40669838
    O      5.53388265      4.56533254      4.55447848
    H      2.77530220      4.20177750      4.90000204
    H      2.30992085      5.90223996      4.68937861
    H      3.04435018      5.00936955      3.34184936
    N      7.25991360      6.65496329      7.28522720
    H      7.67763040      6.00356108      7.94884730
    H      6.28277725      6.37664993      7.20185753
    H      7.25090343      7.56009280      7.75412342
    O      7.55600873      6.40119811      4.60401066
    H      7.68508063      6.55753652      5.57156143
    H      7.33171558      5.45864628      4.40756073
    H      6.89823098      7.02714751      4.21255699
