16
Energy:   -613.84121458
    C      1.08599898      5.51344799      5.36016503
    S      2.63327785      5.06777114      4.58724131
    O      2.45223152      3.68306971      4.16982411
    O      2.77466131      6.00299077      3.47818248
    O      3.63261505      5.24084491      5.63399074
    H      1.14871518      6.53982108      5.69900816
    H      0.29044526      5.40834156      4.63334338
    H      0.91341655      4.85292747      6.20046208
    N      5.37766063      5.22540561      2.20587918
    H      5.26686540      4.95209159      1.23005765
    H      6.05297215      5.98905262      2.20450739
    H      4.48857681      5.64259608      2.47916722
    O      5.17262258      3.45936865      4.25028888
    H      5.12355897      4.01481601      5.06657727
    H      4.32994740      2.96999998      4.08379326
    H      5.45734218      3.98422971      3.46214180
