16
Energy:   -594.27096765
    C      8.70669370      7.95891476      5.34907651
    S      7.54041767      9.30892942      5.43493374
    O      6.98302017      9.23050138      6.77939274
    O      8.34100918     10.50385745      5.19863565
    O      6.57397449      9.03002878      4.38017513
    H      9.16346612      7.95499539      4.36747919
    H      9.46193033      8.10189580      6.11157035
    H      8.17711500      7.02983215      5.51796428
    N      2.95230631      7.20551043      6.39227450
    H      3.28714831      6.69202413      7.20677831
    H      3.01940738      6.55646699      5.60904762
    H      1.95518778      7.35041171      6.54707287
    O      4.44030007      9.43608361      5.95293153
    H      5.12075849      9.53921976      6.66257582
    H      4.84614862      9.40475267      5.05203794
    H      3.84735365      8.66231023      6.11848968
