16
Energy:   -565.61032617
    C      5.39005104      5.45012306      6.40423250
    S      4.17436248      4.90835577      5.21314041
    O      2.96932462      4.67000871      5.99767045
    O      4.05617958      6.01813799      4.27556227
    O      4.74336116      3.70113545      4.62733045
    H      6.32078497      5.64679616      5.88727626
    H      5.03100108      6.35254388      6.88271197
    H      5.52973357      4.66801303      7.13973495
    N      1.38794400      3.85260813      2.51333969
    H      2.01032017      3.97306667      1.71500302
    H      1.39066679      4.74628393      3.00378891
    H      0.45172170      3.75438451      2.12213104
    O      2.39403337      2.04755111      4.60295462
    H      2.00295689      2.08815940      3.69594530
    H      3.34547793      2.31592475      4.60867992
    H      1.86112804      2.56071690      5.25899806
