16
Energy:   -613.86232446
    C      6.52258856      9.32916895      5.77432635
    S      5.91561692      7.69131490      5.40132453
    O      4.69489125      7.91502775      4.63699847
    O      6.98533105      7.06754491      4.63239069
    O      5.69023913      7.07540875      6.70293053
    H      7.43676786      9.23980275      6.34745774
    H      6.71437903      9.84978978      4.84459887
    H      5.77174668      9.85635196      6.34920522
    N      4.67467597      4.33224634      6.03659766
    H      4.99509323      5.19667552      6.47168244
    H      5.26961130      3.59539551      6.41383379
    H      3.74480446      4.15909594      6.41681099
    O      5.07286750      5.42174269      3.58811915
    H      4.49520565      6.22366141      3.56600849
    H      6.03303128      5.65584778      3.56394758
    H      4.85558420      4.83008323      4.34999005
